TITLE = "Visualization of the surface solution"
VARIABLES = "x","y","Conservative_1","Conservative_2","Conservative_3","Conservative_4","Pressure","Temperature","Pressure_Coefficient","Mach","Laminar_Viscosity", "Skin_Friction_Coefficient", "Heat_Flux", "Y_Plus"
ZONE NODES= 45, ELEMENTS= 44, DATAPACKING=POINT, ZONETYPE=FELINESEG
-6.938894e-18	0.000000e+00	1.144790e+00	0.000000e+00	0.000000e+00	2.482483e+05	9.929930e+04	3.021697e+02	2.302054e+00	0.000000e+00	0.000000e+00	2.237005e-02	-1.446933e+03	3.622383e+00	
1.000000e-03	0.000000e+00	1.141246e+00	0.000000e+00	0.000000e+00	2.481829e+05	9.927317e+04	3.030283e+02	2.263851e+00	0.000000e+00	0.000000e+00	1.279256e-02	-1.159705e+03	2.729108e+00	
2.008362e-03	0.000000e+00	1.141573e+00	0.000000e+00	0.000000e+00	2.482387e+05	9.929549e+04	3.030095e+02	2.296476e+00	0.000000e+00	0.000000e+00	8.623948e-03	-7.565967e+02	2.241186e+00	
3.033518e-03	0.000000e+00	1.141599e+00	0.000000e+00	0.000000e+00	2.482417e+05	9.929667e+04	3.030062e+02	2.298204e+00	0.000000e+00	0.000000e+00	6.931788e-03	-6.170714e+02	2.009353e+00	
4.084040e-03	0.000000e+00	1.141617e+00	0.000000e+00	0.000000e+00	2.482444e+05	9.929776e+04	3.030048e+02	2.299801e+00	0.000000e+00	0.000000e+00	6.113439e-03	-5.353582e+02	1.887041e+00	
5.168714e-03	0.000000e+00	1.141625e+00	0.000000e+00	0.000000e+00	2.482455e+05	9.929820e+04	3.030040e+02	2.300444e+00	0.000000e+00	0.000000e+00	5.590271e-03	-4.787845e+02	1.804502e+00	
6.296608e-03	0.000000e+00	1.141631e+00	0.000000e+00	0.000000e+00	2.482465e+05	9.929860e+04	3.030034e+02	2.301035e+00	0.000000e+00	0.000000e+00	5.181379e-03	-4.357677e+02	1.737262e+00	
7.477154e-03	0.000000e+00	1.141637e+00	0.000000e+00	0.000000e+00	2.482474e+05	9.929895e+04	3.030030e+02	2.301542e+00	0.000000e+00	0.000000e+00	4.835959e-03	-4.012388e+02	1.678362e+00	
8.720225e-03	0.000000e+00	1.141642e+00	0.000000e+00	0.000000e+00	2.482481e+05	9.929925e+04	3.030026e+02	2.301978e+00	0.000000e+00	0.000000e+00	4.535633e-03	-3.724572e+02	1.625416e+00	
1.003621e-02	0.000000e+00	1.141646e+00	0.000000e+00	0.000000e+00	2.482488e+05	9.929950e+04	3.030023e+02	2.302346e+00	0.000000e+00	0.000000e+00	4.270136e-03	-3.478014e+02	1.577130e+00	
1.143613e-02	0.000000e+00	1.141649e+00	0.000000e+00	0.000000e+00	2.482493e+05	9.929972e+04	3.030021e+02	2.302659e+00	0.000000e+00	0.000000e+00	4.032227e-03	-3.262381e+02	1.532569e+00	
1.293167e-02	0.000000e+00	1.141652e+00	0.000000e+00	0.000000e+00	2.482498e+05	9.929990e+04	3.030019e+02	2.302933e+00	0.000000e+00	0.000000e+00	3.816604e-03	-3.070704e+02	1.491032e+00	
1.453535e-02	0.000000e+00	1.141655e+00	0.000000e+00	0.000000e+00	2.482502e+05	9.930007e+04	3.030017e+02	2.303179e+00	0.000000e+00	0.000000e+00	3.619337e-03	-2.898138e+02	1.451990e+00	
1.626057e-02	0.000000e+00	1.141657e+00	0.000000e+00	0.000000e+00	2.482506e+05	9.930022e+04	3.030015e+02	2.303404e+00	0.000000e+00	0.000000e+00	3.437466e-03	-2.741165e+02	1.415041e+00	
1.812176e-02	0.000000e+00	1.141660e+00	0.000000e+00	0.000000e+00	2.482509e+05	9.930037e+04	3.030014e+02	2.303616e+00	0.000000e+00	0.000000e+00	3.268714e-03	-2.597162e+02	1.379872e+00	
2.013449e-02	0.000000e+00	1.141662e+00	0.000000e+00	0.000000e+00	2.482513e+05	9.930051e+04	3.030012e+02	2.303820e+00	0.000000e+00	0.000000e+00	3.111301e-03	-2.464122e+02	1.346238e+00	
2.231558e-02	0.000000e+00	1.141664e+00	0.000000e+00	0.000000e+00	2.482516e+05	9.930065e+04	3.030011e+02	2.304019e+00	0.000000e+00	0.000000e+00	2.963818e-03	-2.340595e+02	1.313945e+00	
2.468328e-02	0.000000e+00	1.141666e+00	0.000000e+00	0.000000e+00	2.482519e+05	9.930078e+04	3.030010e+02	2.304216e+00	0.000000e+00	0.000000e+00	2.825137e-03	-2.225193e+02	1.282838e+00	
2.725738e-02	0.000000e+00	1.141667e+00	0.000000e+00	0.000000e+00	2.482523e+05	9.930091e+04	3.030009e+02	2.304412e+00	0.000000e+00	0.000000e+00	2.694351e-03	-2.117263e+02	1.252793e+00	
3.005940e-02	0.000000e+00	1.141669e+00	0.000000e+00	0.000000e+00	2.482526e+05	9.930105e+04	3.030008e+02	2.304608e+00	0.000000e+00	0.000000e+00	2.570718e-03	-2.015596e+02	1.223714e+00	
3.311279e-02	0.000000e+00	1.141671e+00	0.000000e+00	0.000000e+00	2.482530e+05	9.930118e+04	3.030008e+02	2.304807e+00	0.000000e+00	0.000000e+00	2.453632e-03	-1.920106e+02	1.195523e+00	
3.644306e-02	0.000000e+00	1.141673e+00	0.000000e+00	0.000000e+00	2.482533e+05	9.930132e+04	3.030007e+02	2.305006e+00	0.000000e+00	0.000000e+00	2.342577e-03	-1.829674e+02	1.168155e+00	
4.007807e-02	0.000000e+00	1.141675e+00	0.000000e+00	0.000000e+00	2.482536e+05	9.930146e+04	3.030006e+02	2.305206e+00	0.000000e+00	0.000000e+00	2.237121e-03	-1.744422e+02	1.141560e+00	
4.404822e-02	0.000000e+00	1.141677e+00	0.000000e+00	0.000000e+00	2.482540e+05	9.930159e+04	3.030006e+02	2.305405e+00	0.000000e+00	0.000000e+00	2.136868e-03	-1.663479e+02	1.115690e+00	
4.838669e-02	0.000000e+00	1.141678e+00	0.000000e+00	0.000000e+00	2.482543e+05	9.930173e+04	3.030005e+02	2.305602e+00	0.000000e+00	0.000000e+00	2.041486e-03	-1.586901e+02	1.090506e+00	
5.312978e-02	0.000000e+00	1.141680e+00	0.000000e+00	0.000000e+00	2.482546e+05	9.930186e+04	3.030005e+02	2.305793e+00	0.000000e+00	0.000000e+00	1.950653e-03	-1.513919e+02	1.065971e+00	
5.831714e-02	0.000000e+00	1.141682e+00	0.000000e+00	0.000000e+00	2.482550e+05	9.930198e+04	3.030004e+02	2.305976e+00	0.000000e+00	0.000000e+00	1.864118e-03	-1.445099e+02	1.042059e+00	
6.399215e-02	0.000000e+00	1.141683e+00	0.000000e+00	0.000000e+00	2.482553e+05	9.930210e+04	3.030004e+02	2.306147e+00	0.000000e+00	0.000000e+00	1.781659e-03	-1.378524e+02	1.018751e+00	
7.020227e-02	0.000000e+00	1.141684e+00	0.000000e+00	0.000000e+00	2.482555e+05	9.930221e+04	3.030004e+02	2.306305e+00	0.000000e+00	0.000000e+00	1.703153e-03	-1.317203e+02	9.960543e-01	
7.699942e-02	0.000000e+00	1.141686e+00	0.000000e+00	0.000000e+00	2.482558e+05	9.930230e+04	3.030003e+02	2.306445e+00	0.000000e+00	0.000000e+00	1.628499e-03	-1.255791e+02	9.739806e-01	
8.444044e-02	0.000000e+00	1.141687e+00	0.000000e+00	0.000000e+00	2.482560e+05	9.930239e+04	3.030003e+02	2.306573e+00	0.000000e+00	0.000000e+00	1.557787e-03	-1.202028e+02	9.526004e-01	
9.258755e-02	0.000000e+00	1.141688e+00	0.000000e+00	0.000000e+00	2.482562e+05	9.930246e+04	3.030003e+02	2.306678e+00	0.000000e+00	0.000000e+00	1.490958e-03	-1.145516e+02	9.319436e-01	
1.015089e-01	0.000000e+00	1.141689e+00	0.000000e+00	0.000000e+00	2.482563e+05	9.930253e+04	3.030003e+02	2.306779e+00	0.000000e+00	0.000000e+00	1.428369e-03	-1.099060e+02	9.121734e-01	
1.112790e-01	0.000000e+00	1.141689e+00	0.000000e+00	0.000000e+00	2.482565e+05	9.930259e+04	3.030003e+02	2.306856e+00	0.000000e+00	0.000000e+00	1.369789e-03	-1.048288e+02	8.932727e-01	
1.219797e-01	0.000000e+00	1.141690e+00	0.000000e+00	0.000000e+00	2.482566e+05	9.930264e+04	3.030002e+02	2.306936e+00	0.000000e+00	0.000000e+00	1.315860e-03	-1.008224e+02	8.755123e-01	
1.337004e-01	0.000000e+00	1.141690e+00	0.000000e+00	0.000000e+00	2.482567e+05	9.930268e+04	3.030002e+02	2.306995e+00	0.000000e+00	0.000000e+00	1.265932e-03	-9.642948e+01	8.587422e-01	
1.465391e-01	0.000000e+00	1.141691e+00	0.000000e+00	0.000000e+00	2.482568e+05	9.930272e+04	3.030002e+02	2.307057e+00	0.000000e+00	0.000000e+00	1.220940e-03	-9.292563e+01	8.433441e-01	
1.606031e-01	0.000000e+00	1.141691e+00	0.000000e+00	0.000000e+00	2.482569e+05	9.930276e+04	3.030002e+02	2.307104e+00	0.000000e+00	0.000000e+00	1.179713e-03	-8.925504e+01	8.289835e-01	
1.760101e-01	0.000000e+00	1.141692e+00	0.000000e+00	0.000000e+00	2.482570e+05	9.930279e+04	3.030002e+02	2.307156e+00	0.000000e+00	0.000000e+00	1.143467e-03	-8.611695e+01	8.161493e-01	
1.928889e-01	0.000000e+00	1.141692e+00	0.000000e+00	0.000000e+00	2.482571e+05	9.930282e+04	3.030002e+02	2.307204e+00	0.000000e+00	0.000000e+00	1.110558e-03	-8.310967e+01	8.043193e-01	
2.113807e-01	0.000000e+00	1.141693e+00	0.000000e+00	0.000000e+00	2.482572e+05	9.930287e+04	3.030002e+02	2.307264e+00	0.000000e+00	0.000000e+00	1.082380e-03	-8.021647e+01	7.940500e-01	
2.316400e-01	0.000000e+00	1.141693e+00	0.000000e+00	0.000000e+00	2.482573e+05	9.930291e+04	3.030002e+02	2.307333e+00	0.000000e+00	0.000000e+00	1.056760e-03	-7.775616e+01	7.845964e-01	
2.538363e-01	0.000000e+00	1.141694e+00	0.000000e+00	0.000000e+00	2.482574e+05	9.930297e+04	3.030002e+02	2.307418e+00	0.000000e+00	0.000000e+00	1.034548e-03	-7.497177e+01	7.763071e-01	
2.781552e-01	0.000000e+00	1.141695e+00	0.000000e+00	0.000000e+00	2.482576e+05	9.930303e+04	3.030001e+02	2.307499e+00	0.000000e+00	0.000000e+00	1.010072e-03	-7.272412e+01	7.670695e-01	
3.048000e-01	0.000000e+00	1.141695e+00	0.000000e+00	0.000000e+00	2.482576e+05	9.930306e+04	3.030001e+02	2.307546e+00	0.000000e+00	0.000000e+00	9.898543e-04	-6.992048e+01	7.593538e-01	
1	2
2	3
3	4
4	5
5	6
6	7
7	8
8	9
9	10
10	11
11	12
12	13
13	14
14	15
15	16
16	17
17	18
18	19
19	20
20	21
21	22
22	23
23	24
24	25
25	26
26	27
27	28
28	29
29	30
30	31
31	32
32	33
33	34
34	35
35	36
36	37
37	38
38	39
39	40
40	41
41	42
42	43
43	44
44	45
